<?xml version="1.0" encoding="UTF-8"?>
<UPF version="2.0.1">
  <PP_INFO><![CDATA[
Generated using "atomic" code by A. Dal Corso  v.6.6
Author: ADC
Generation date: 14Nov2022
Pseudopotential type: USPP
Element: Sc
Functional: PBE
    Suggested minimum cutoff for wavefunctions:  50. Ry
    Suggested minimum cutoff for charge density: 402. Ry
    The Pseudo was generated with a Scalar-Relativistic Calculation
    Local Potential by smoothing AE potential with Bessel fncs, cutoff radius:   1.2000
    Valence configuration:
    nl pn  l   occ       Rcut    Rcut US       E pseu
    3S  1  0  2.00      0.900      1.300    -4.045258
    4S  2  0  2.00      0.900      1.300    -0.307429
    3P  2  1  6.00      0.900      1.450    -2.471331
    3D  3  2  1.00      1.000      1.500    -0.237624
    Generation configuration:
    3S  1  0  2.00      0.900      1.300    -4.045287
    4S  2  0  2.00      0.900      1.300    -0.307439
    3P  2  1  6.00      0.900      1.450    -2.471358
    4P  3  1  0.00      0.900      1.450     7.000000
    3D  3  2  1.00      1.000      1.500    -0.237647
    3D  3  2  0.00      1.000      1.500     6.000000
    Pseudization used: troullier-martins
]]>
    <PP_INPUTFILE><![CDATA[
 &input
   title='Sc',
   zed=21.,
   rel=1,
   config='[Ar] 4s2 4p0 3d1',
   iswitch=3,
   dft='PBE'
 /
 &inputp
   lpaw=.false.,
   pseudotype=3,
   file_pseudopw='Sc.pbe-spn-rrkjus_psl.1.0.0.UPF',
   author='ADC',
   lloc=-1,
   rcloc=1.2,
   which_augfun='PSQ',
   rmatch_augfun_nc=.true.,
   nlcc=.true.,
   new_core_ps=.true.,
   rcore=0.8,
   tm=.true.
 /
6
3S  1  0  2.00  0.00  0.90  1.30  0.0
4S  2  0  2.00  0.00  0.90  1.30  0.0
3P  2  1  6.00  0.00  0.90  1.45  0.0
4P  3  1  0.00  7.00  0.90  1.45  0.0
3D  3  2  1.00  0.00  1.00  1.50  0.0
3D  3  2  0.00  6.00  1.00  1.50  0.0
]]></PP_INPUTFILE>
  </PP_INFO>
  <!--
 END OF HUMAN READABLE SECTION 
-->
  <PP_HEADER generated="Generated using &quot;atomic&quot; code by A. Dal Corso  v.6.6" author="ADC" date="14Nov2022" comment="" element="Sc" pseudo_type="USPP" relativistic="scalar" is_ultrasoft="true" is_paw="false" is_coulomb="false" has_so="false" has_wfc="false" has_gipaw="false" paw_as_gipaw="false" core_correction="true" functional="PBE" z_valence="1.100000000000e1" total_psenergy="-9.756037851342e1" wfc_cutoff="5.013887276079e1" rho_cutoff="4.019181225530e2" l_max="2" l_max_rho="4" l_local="-1" mesh_size="1173" number_of_wfc="4" number_of_proj="6"/>
  <PP_MESH dx="1.250000000000e-2" mesh="1173" xmin="-7.000000000000e0" rmax="1.000000000000e2" zmesh="2.100000000000e1">
    <PP_R>
      4.342295074069125e-5 4.396914422233439e-5 4.452220797221820e-5 4.508222840767877e-5
      4.564929303304856e-5 4.622349045332899e-5 4.680491038803519e-5 4.739364368521482e-5
      4.798978233564336e-5 4.859341948719783e-5 4.920464945941129e-5 4.982356775821041e-5
      5.045027109083858e-5 5.108485738096652e-5 5.172742578399323e-5 5.237807670253897e-5
      5.303691180213351e-5 5.370403402710153e-5 5.437954761664797e-5 5.506355812114561e-5
      5.575617241862735e-5 5.645749873148632e-5 5.716764664338575e-5 5.788672711638165e-5
      5.861485250826100e-5 5.935213659009760e-5 6.009869456402926e-5 6.085464308125831e-5
      6.162010026027848e-5 6.239518570533144e-5 6.318002052509484e-5 6.397472735160603e-5
      6.477943035942352e-5 6.559425528502938e-5 6.641932944647612e-5 6.725478176328008e-5
      6.810074277656543e-5 6.895734466946170e-5 6.982472128775729e-5 7.070300816081367e-5
      7.159234252274153e-5 7.249286333384437e-5 7.340471130233096e-5 7.432802890630153e-5
      7.526296041601032e-5 7.620965191640783e-5 7.716825132996698e-5 7.813890843979649e-5
      7.912177491304448e-5 8.011700432459721e-5 8.112475218107495e-5 8.214517594513058e-5
      8.317843506005332e-5 8.422469097468193e-5 8.528410716863190e-5 8.635684917783880e-5
      8.744308462042413e-5 8.854298322288576e-5 8.965671684661796e-5 9.078445951476555e-5
      9.192638743941473e-5 9.308267904912702e-5 9.425351501681888e-5 9.543907828799234e-5
      9.663955410932067e-5 9.785513005759331e-5 9.908599606902522e-5 1.003323444689350e-4
      1.015943700017956e-4 1.028722698616645e-4 1.041662437229945e-4 1.054764937718341e-4
      1.068032247374192e-4 1.081466439241622e-4 1.095069612440446e-4 1.108843892494149e-4
      1.122791431662016e-4 1.136914409275416e-4 1.151215032078335e-4 1.165695534572182e-4
      1.180358179364933e-4 1.195205257524666e-4 1.210239088937552e-4 1.225462022670333e-4
      1.240876437337380e-4 1.256484741472344e-4 1.272289373904500e-4 1.288292804139822e-4
      1.304497532746842e-4 1.320906091747376e-4 1.337521045012149e-4 1.354344988661413e-4
      1.371380551470592e-4 1.388630395281032e-4 1.406097215415927e-4 1.423783741101457e-4
      1.441692735893245e-4 1.459826998108163e-4 1.478189361261576e-4 1.496782694510086e-4
      1.515609903099841e-4 1.534673928820489e-4 1.553977750464832e-4 1.573524384294277e-4
      1.593316884510130e-4 1.613358343730815e-4 1.633651893475112e-4 1.654200704651454e-4
      1.675007988053395e-4 1.696076994861300e-4 1.717411017150348e-4 1.739013388404925e-4
      1.760887484039491e-4 1.783036721925991e-4 1.805464562927908e-4 1.828174511441030e-4
      1.851170115941014e-4 1.874454969537849e-4 1.898032710537281e-4 1.921907023009313e-4
      1.946081637363841e-4 1.970560330933541e-4 1.995346928564085e-4 2.020445303211782e-4
      2.045859376548734e-4 2.071593119575605e-4 2.097650553242098e-4 2.124035749075239e-4
      2.150752829815556e-4 2.177805970061272e-4 2.205199396920593e-4 2.232937390672196e-4
      2.261024285434037e-4 2.289464469840564e-4 2.318262387728458e-4 2.347422538830977e-4
      2.376949479481056e-4 2.406847823323245e-4 2.437122242034595e-4 2.467777466054630e-4
      2.498818285324469e-4 2.530249550035274e-4 2.562076171386105e-4 2.594303122351298e-4
      2.626935438457511e-4 2.659978218570524e-4 2.693436625691956e-4 2.727315887765993e-4
      2.761621298496258e-4 2.796358218172977e-4 2.831532074510521e-4 2.867148363495504e-4
      2.903212650245542e-4 2.939730569878810e-4 2.976707828394553e-4 3.014150203564641e-4
      3.052063545836373e-4 3.090453779246612e-4 3.129326902347435e-4 3.168688989143416e-4
      3.208546190040699e-4 3.248904732808013e-4 3.289770923549777e-4 3.331151147691434e-4
      3.373051870977203e-4 3.415479640480333e-4 3.458441085626138e-4 3.501942919227827e-4
      3.545991938535399e-4 3.590595026297750e-4 3.635759151838077e-4 3.681491372142891e-4
      3.727798832964654e-4 3.774688769938331e-4 3.822168509711981e-4 3.870245471091529e-4
      3.918927166200015e-4 3.968221201651339e-4 4.018135279738824e-4 4.068677199638737e-4
      4.119854858628873e-4 4.171676253322585e-4 4.224149480918219e-4 4.277282740464342e-4
      4.331084334140868e-4 4.385562668556258e-4 4.440726256061108e-4 4.496583716078196e-4
      4.553143776449287e-4 4.610415274798902e-4 4.668407159915156e-4 4.727128493148101e-4
      4.786588449825518e-4 4.846796320686603e-4 4.907761513333691e-4 4.969493553702145e-4
      5.032002087548884e-4 5.095296881959489e-4 5.159387826874358e-4 5.224284936634042e-4
      5.289998351543956e-4 5.356538339458887e-4 5.423915297387323e-4 5.492139753116011e-4
      5.561222366854977e-4 5.631173932903152e-4 5.702005381335058e-4 5.773727779708617e-4
      5.846352334794494e-4 5.919890394327187e-4 5.994353448778094e-4 6.069753133150986e-4
      6.146101228799940e-4 6.223409665270228e-4 6.301690522162352e-4 6.380956031019442e-4
      6.461218577238541e-4 6.542490702005783e-4 6.624785104256009e-4 6.708114642657018e-4
      6.792492337618693e-4 6.877931373327561e-4 6.964445099806772e-4 7.052047035002095e-4
      7.140750866894151e-4 7.230570455637118e-4 7.321519835724491e-4 7.413613218181947e-4
      7.506864992787852e-4 7.601289730321725e-4 7.696902184840893e-4 7.793717295985918e-4
      7.891750191314884e-4 7.991016188667124e-4 8.091530798556706e-4 8.193309726595897e-4
      8.296368875949291e-4 8.400724349818651e-4 8.506392453959066e-4 8.613389699226815e-4
      8.721732804159132e-4 8.831438697586613e-4 8.942524521278290e-4 9.055007632620121e-4
      9.168905607327110e-4 9.284236242189522e-4 9.401017557853706e-4 9.519267801637824e-4
      9.639005450383044e-4 9.760249213340600e-4 9.883018035095114e-4 1.000733109852478e-3
      1.013320782779865e-3 1.026066789141180e-3 1.038973120525846e-3 1.052041793574402e-3
      1.065274850293600e-3 1.078674358375475e-3 1.092242411520425e-3 1.105981129764361e-3
      1.119892659809957e-3 1.133979175362090e-3 1.148242877467470e-3 1.162685994858573e-3
      1.177310784301876e-3 1.192119530950483e-3 1.207114548701188e-3 1.222298180556021e-3
      1.237672798988350e-3 1.253240806313586e-3 1.269004635064547e-3 1.284966748371547e-3
      1.301129640347265e-3 1.317495836476456e-3 1.334067894010563e-3 1.350848402367291e-3
      1.367839983535211e-3 1.385045292483451e-3 1.402467017576537e-3 1.420107880994462e-3
      1.437970639158024e-3 1.456058083159528e-3 1.474373039198900e-3 1.492918369025280e-3
      1.511696970384188e-3 1.530711777470289e-3 1.549965761385877e-3 1.569461930605113e-3
      1.589203331444099e-3 1.609193048536883e-3 1.629434205317430e-3 1.649929964507668e-3
      1.670683528611669e-3 1.691698140416046e-3 1.712977083496651e-3 1.734523682731630e-3
      1.756341304820953e-3 1.778433358812458e-3 1.800803296634528e-3 1.823454613635460e-3
      1.846390849129620e-3 1.869615586950468e-3 1.893132456010539e-3 1.916945130868469e-3
      1.941057332303154e-3 1.965472827895121e-3 1.990195432615234e-3 2.015229009420777e-3
      2.040577469859056e-3 2.066244774678589e-3 2.092234934447972e-3 2.118552010182548e-3
      2.145200113978944e-3 2.172183409657590e-3 2.199506113413339e-3 2.227172494474237e-3
      2.255186875768616e-3 2.283553634600546e-3 2.312277203333808e-3 2.341362070084457e-3
      2.370812779422093e-3 2.400633933079970e-3 2.430830190674020e-3 2.461406270430924e-3
      2.492366949925351e-3 2.523717066826467e-3 2.555461519653815e-3 2.587605268542737e-3
      2.620153336019393e-3 2.653110807785542e-3 2.686482833513208e-3 2.720274627649300e-3
      2.754491470230404e-3 2.789138707707788e-3 2.824221753782796e-3 2.859746090252759e-3
      2.895717267867522e-3 2.932140907196773e-3 2.969022699508260e-3 3.006368407657065e-3
      3.044183866986075e-3 3.082474986237741e-3 3.121247748477351e-3 3.160508212027888e-3
      3.200262511416655e-3 3.240516858333819e-3 3.281277542602981e-3 3.322550933163984e-3
      3.364343479068077e-3 3.406661710485582e-3 3.449512239726260e-3 3.492901762272482e-3
      3.536837057825424e-3 3.581324991364401e-3 3.626372514219539e-3 3.671986665157938e-3
      3.718174571483484e-3 3.764943450150509e-3 3.812300608891456e-3 3.860253447358725e-3
      3.908809458280895e-3 3.957976228633455e-3 4.007761440824305e-3 4.058172873894137e-3
      4.109218404731928e-3 4.160906009305733e-3 4.213243763908920e-3 4.266239846422129e-3
      4.319902537591074e-3 4.374240222320424e-3 4.429261390983975e-3 4.484974640751271e-3
      4.541388676930936e-3 4.598512314330899e-3 4.656354478635716e-3 4.714924207801252e-3
      4.774230653466844e-3 4.834283082385289e-3 4.895090877870782e-3 4.956663541265078e-3
      5.019010693422111e-3 5.082142076211248e-3 5.146067554039492e-3 5.210797115392809e-3
      5.276340874396856e-3 5.342709072397321e-3 5.409912079560179e-3 5.477960396492020e-3
      5.546864655880811e-3 5.616635624157266e-3 5.687284203177124e-3 5.758821431924605e-3
      5.831258488237236e-3 5.904606690552442e-3 5.978877499676062e-3 6.054082520573123e-3
      6.130233504181154e-3 6.207342349246271e-3 6.285421104182394e-3 6.364481968953833e-3
      6.444537296981557e-3 6.525599597073452e-3 6.607681535378823e-3 6.690795937367532e-3
      6.774955789833985e-3 6.860174242926346e-3 6.946464612201306e-3 7.033840380704612e-3
      7.122315201077862e-3 7.211902897691747e-3 7.302617468806117e-3 7.394473088757286e-3
      7.487484110172746e-3 7.581665066213827e-3 7.677030672846517e-3 7.773595831140877e-3
      7.871375629599360e-3 7.970385346514409e-3 8.070640452355724e-3 8.172156612187564e-3
      8.274949688116436e-3 8.379035741769595e-3 8.484431036804690e-3 8.591152041450993e-3
      8.699215431082608e-3 8.808638090824015e-3 8.919437118188432e-3 9.031629825749301e-3
      9.145233743845440e-3 9.260266623320174e-3 9.376746438294957e-3 9.494691388977865e-3
      9.614119904507403e-3 9.735050645832100e-3 9.857502508626323e-3 9.981494626242753e-3
      1.010704637270205e-2 1.023417736572003e-2 1.036290746977300e-2 1.049325679920162e-2
      1.062524572135380e-2 1.075889485976719e-2 1.089422509739155e-2 1.103125757985185e-2
      1.117001371875228e-2 1.131051519502182e-2 1.145278396230201e-2 1.159684225037718e-2
      1.174271256864794e-2 1.189041770964827e-2 1.203998075260697e-2 1.219142506705381e-2
      1.234477431647103e-2 1.250005246199083e-2 1.265728376613937e-2 1.281649279662780e-2
      1.297770443019108e-2 1.314094385647492e-2 1.330623658197178e-2 1.347360843400633e-2
      1.364308556477096e-2 1.381469445541216e-2 1.398846192016824e-2 1.416441511055908e-2
      1.434258151962868e-2 1.452298898624092e-2 1.470566569942952e-2 1.489064020280257e-2
      1.507794139900254e-2 1.526759855422242e-2 1.545964130277856e-2 1.565409965174115e-2
      1.585100398562284e-2 1.605038507112640e-2 1.625227406195209e-2 1.645670250366545e-2
      1.666370233862645e-2 1.687330591098042e-2 1.708554597171199e-2 1.730045568376245e-2
      1.751806862721154e-2 1.773841880452443e-2 1.796154064586462e-2 1.818746901447377e-2
      1.841623921211912e-2 1.864788698460948e-2 1.888244852738062e-2 1.911996049115080e-2
      1.936045998764759e-2 1.960398459540661e-2 1.985057236564325e-2 2.010026182819836e-2
      2.035309199755842e-2 2.060910237895179e-2 2.086833297452141e-2 2.113082428957523e-2
      2.139661733891532e-2 2.166575365324637e-2 2.193827528566505e-2 2.221422481823089e-2
      2.249364536861975e-2 2.277658059686115e-2 2.306307471216012e-2 2.335317247980507e-2
      2.364691922816237e-2 2.394436085575909e-2 2.424554383845473e-2 2.455051523670306e-2
      2.485932270290554e-2 2.517201448885704e-2 2.548863945328525e-2 2.580924706948511e-2
      2.613388743304888e-2 2.646261126969389e-2 2.679546994318839e-2 2.713251546337729e-2
      2.747380049430889e-2 2.781937836246362e-2 2.816930306508645e-2 2.852362927862409e-2
      2.888241236726826e-2 2.924570839160657e-2 2.961357411738192e-2 2.998606702436240e-2
      3.036324531532256e-2 3.074516792513772e-2 3.113189452999273e-2 3.152348555670639e-2
      3.192000219217332e-2 3.232150639292452e-2 3.272806089480820e-2 3.313972922279248e-2
      3.355657570089113e-2 3.397866546221442e-2 3.440606445914632e-2 3.483883947364961e-2
      3.527705812770086e-2 3.572078889385629e-2 3.617010110595090e-2 3.662506496993196e-2
      3.708575157482880e-2 3.755223290386080e-2 3.802458184568463e-2 3.850287220578346e-2
      3.898717871799917e-2 3.947757705620955e-2 3.997414384615273e-2 4.047695667739993e-2
      4.098609411547897e-2 4.150163571415041e-2 4.202366202783788e-2 4.255225462421503e-2
      4.308749609695047e-2 4.362947007861324e-2 4.417826125374064e-2 4.473395537207027e-2
      4.529663926193877e-2 4.586640084384868e-2 4.644332914420634e-2 4.702751430923247e-2
      4.761904761904762e-2 4.821802150193498e-2 4.882452954878235e-2 4.943866652770597e-2
      5.006052839885831e-2 5.069021232942187e-2 5.132781670879199e-2 5.197344116395009e-2
      5.262718657503086e-2 5.328915509108483e-2 5.395945014603934e-2 5.463817647486059e-2
      5.532544012991826e-2 5.602134849755672e-2 5.672601031487424e-2 5.743953568671336e-2
      5.816203610286524e-2 5.889362445548977e-2 5.963441505675547e-2 6.038452365670097e-2
      6.114406746132102e-2 6.191316515088054e-2 6.269193689845819e-2 6.348050438872398e-2
      6.427899083695257e-2 6.508752100827602e-2 6.590622123717865e-2 6.673521944723683e-2
      6.757464517110751e-2 6.842462957076788e-2 6.928530545800959e-2 7.015680731519122e-2
      7.103927131625099e-2 7.193283534798445e-2 7.283763903158952e-2 7.375382374448253e-2
      7.468153264238902e-2 7.562091068171162e-2 7.657210464218018e-2 7.753526314978625e-2
      7.851053670000610e-2 7.949807768131634e-2 8.049804039900438e-2 8.151058109927931e-2
      8.253585799368555e-2 8.357403128382373e-2 8.462526318638279e-2 8.568971795848615e-2
      8.676756192335763e-2 8.785896349630956e-2 8.896409321105821e-2 9.008312374637001e-2
      9.121622995304270e-2 9.236358888122643e-2 9.352537980808801e-2 9.470178426582343e-2
      9.589298607002272e-2 9.709917134839124e-2 9.832052856983275e-2 9.955724857389797e-2
      1.008095246006036e-1 1.020775523206267e-1 1.033615298658782e-1 1.046616578604620e-1
      1.059781394520223e-1 1.073111803434861e-1 1.086609888252050e-1 1.100277758075002e-1
      1.114117548536187e-1 1.128131422131020e-1 1.142321568555761e-1 1.156690205049661e-1
      1.171239576741405e-1 1.185971956999920e-1 1.200889647789595e-1 1.215994980029965e-1
      1.231290313959927e-1 1.246778039506525e-1 1.262460576658385e-1 1.278340375843844e-1
      1.294419918313831e-1 1.310701716529575e-1 1.327188314555168e-1 1.343882288455095e-1
      1.360786246696746e-1 1.377902830557982e-1 1.395234714539859e-1 1.412784606784509e-1
      1.430555249498301e-1 1.448549419380317e-1 1.466769928056205e-1 1.485219622517522e-1
      1.503901385566557e-1 1.522818136266797e-1 1.541972830399030e-1 1.561368460923178e-1
      1.581008058445977e-1 1.600894691694491e-1 1.621031467995627e-1 1.641421533761656e-1
      1.662068074981829e-1 1.682974317720225e-1 1.704143528619800e-1 1.725579015412829e-1
      1.747284127437736e-1 1.769262256162430e-1 1.791516835714245e-1 1.814051343416506e-1
      1.836869300331892e-1 1.859974271812598e-1 1.883369868057418e-1 1.907059744675871e-1
      1.931047603259369e-1 1.955337191959624e-1 1.979932306074291e-1 2.004836788639981e-1
      2.030054531032773e-1 2.055589473576212e-1 2.081445606157027e-1 2.107626968848542e-1
      2.134137652541936e-1 2.160981799585480e-1 2.188163604431757e-1 2.215687314293080e-1
      2.243557229805116e-1 2.271777705698858e-1 2.300353151481088e-1 2.329288032123336e-1
      2.358586868759577e-1 2.388254239392649e-1 2.418294779609563e-1 2.448713183305853e-1
      2.479514203418976e-1 2.510702652670995e-1 2.542283404320562e-1 2.574261392924365e-1
      2.606641615108193e-1 2.639429130347630e-1 2.672629061758645e-1 2.706246596898070e-1
      2.740286988574158e-1 2.774755555667372e-1 2.809657683961437e-1 2.844998826984915e-1
      2.880784506863310e-1 2.917020315181898e-1 2.953711913859463e-1 2.990865036032936e-1
      3.028485486953252e-1 3.066579144892411e-1 3.105151962061958e-1 3.144209965543064e-1
      3.183759258228225e-1 3.223806019774892e-1 3.264356507571040e-1 3.305417057712874e-1
      3.346994085994905e-1 3.389094088912379e-1 3.431723644676412e-1 3.474889414241827e-1
      3.518598142347929e-1 3.562856658572422e-1 3.607671878398500e-1 3.653050804295442e-1
      3.699000526812751e-1 3.745528225688044e-1 3.792641170968943e-1 3.840346724148988e-1
      3.888652339317927e-1 3.937565564326416e-1 3.987094041965364e-1 4.037245511160182e-1
      4.088027808179951e-1 4.139448867861906e-1 4.191516724851244e-1 4.244239514856542e-1
      4.297625475921015e-1 4.351682949709680e-1 4.406420382812804e-1 4.461846328065683e-1
      4.517969445885012e-1 4.574798505622148e-1 4.632342386933280e-1 4.690610081166943e-1
      4.749610692768917e-1 4.809353440704787e-1 4.869847659900481e-1 4.931102802700807e-1
      4.993128440346462e-1 5.055934264469530e-1 5.119530088607788e-1 5.183925849738166e-1
      5.249131609829336e-1 5.315157557413983e-1 5.382014009180756e-1 5.449711411586248e-1
      5.518260342487334e-1 5.587671512793912e-1 5.657955768142569e-1 5.729124090591209e-1
      5.801187600334988e-1 5.874157557443937e-1 5.948045363622292e-1 6.022862563990106e-1
      6.098620848887163e-1 6.175332055699587e-1 6.253008170709538e-1 6.331661330967995e-1
      6.411303826191290e-1 6.491948100681316e-1 6.573606755270045e-1 6.656292549288404e-1
      6.740018402559908e-1 6.824797397419500e-1 6.910642780757583e-1 6.997567966089973e-1
      7.085586535653738e-1 7.174712242529425e-1 7.264959012790086e-1 7.356340947677156e-1
      7.448872325803891e-1 7.542567605386397e-1 7.637441426502702e-1 7.733508613380408e-1
      7.830784176712887e-1 7.929283316004830e-1 8.029021421947165e-1 8.130014078821839e-1
      8.232277066936982e-1 8.335826365092519e-1 8.440678153076973e-1 8.546848814195551e-1
      8.654354937830032e-1 8.763213322030987e-1 8.873440976142389e-1 8.985055123459469e-1
      9.098073203919842e-1 9.212512876828484e-1 9.328392023617152e-1 9.445728750638253e-1
      9.564541391994128e-1 9.684848512401727e-1 9.806668910093350e-1 9.930021619754017e-1
      1.005492591549554e0 1.018140131386826e0 1.030946757691051e0 1.043914471523641e0
      1.057045299116270e0 1.070341292187458e0 1.083804528263178e0 1.097437111001457e0
      1.111241170521082e0 1.125218863734440e0 1.139372374684531e0 1.153703914886237e0
      1.168215723671875e0 1.182910068541088e0 1.197789245515162e0 1.212855579495767e0
      1.228111424628241e0 1.243559164669428e0 1.259201213360133e0 1.275040014802293e0
      1.291078043840853e0 1.307317806450481e0 1.323761840127128e0 1.340412714284507e0
      1.357273030655586e0 1.374345423699097e0 1.391632561011188e0 1.409137143742237e0
      1.426861907018906e0 1.444809620371522e0 1.462983088166806e0 1.481385150046079e0
      1.500018681368951e0 1.518886593662595e0 1.537991835076701e0 1.557337390844103e0
      1.576926283747253e0 1.596761574590522e0 1.616846362678455e0 1.637183786300058e0
      1.657777023219145e0 1.678629291170883e0 1.699743848364567e0 1.721123993992711e0
      1.742773068746573e0 1.764694455338124e0 1.786891579028619e0 1.809367908163800e0
      1.832126954715816e0 1.855172274832001e0 1.878507469390503e0 1.902136184562949e0
      1.926062112384163e0 1.950288991329038e0 1.974820606896705e0 1.999660792202000e0
      2.024813428574418e0 2.050282446164569e0 2.076071824558262e0 2.102185593398347e0
      2.128627833014327e0 2.155402675059941e0 2.182514303158739e0 2.209966953557761e0
      2.237764915789493e0 2.265912533342081e0 2.294414204338039e0 2.323274382221451e0
      2.352497576453819e0 2.382088353218705e0 2.412051336135175e0 2.442391206980272e0
      2.473112706420547e0 2.504220634752783e0 2.535719852654081e0 2.567615281941312e0
      2.599911906340202e0 2.632614772264023e0 2.665728989602103e0 2.699259732518279e0
      2.733212240259345e0 2.767591817973714e0 2.802403837540355e0 2.837653738408142e0
      2.873347028445812e0 2.909489284802542e0 2.946086154779423e0 2.983143356711853e0
      3.020666680863016e0 3.058661990328664e0 3.097135221953191e0 3.136092387257319e0
      3.175539573377391e0 3.215482944016483e0 3.255928740407534e0 3.296883282288507e0
      3.338352968889898e0 3.380344279934616e0 3.422863776650432e0 3.465918102795226e0
      3.509513985695040e0 3.553658237295282e0 3.598357755225080e0 3.643619523875042e0
      3.689450615488618e0 3.735858191267103e0 3.782849502488635e0 3.830431891641205e0
      3.878612793569912e0 3.927399736638720e0 3.976800343906728e0 4.026822334319333e0
      4.077473523914317e0 4.128761827043091e0 4.180695257607377e0 4.233281930311349e0
      4.286530061929610e0 4.340447972591069e0 4.395044087078947e0 4.450326936147226e0
      4.506305157853530e0 4.562987498908899e0 4.620382816044450e0 4.678500077395241e0
      4.737348363901616e0 4.796936870728054e0 4.857274908699985e0 4.918371905758612e0
      4.980237408434011e0 5.042881083336859e0 5.106312718668788e0 5.170542225751886e0
      5.235579640577315e0 5.301435125373446e0 5.368118970193778e0 5.435641594524716e0
      5.504013548913698e0 5.573245516617710e0 5.643348315272540e0 5.714332898583121e0
      5.786210358034999e0 5.858991924627454e0 5.932688970628355e0 6.007313011351056e0
      6.082875706953764e0 6.159388864261380e0 6.236864438610409e0 6.315314535716984e0
      6.394751413568359e0 6.475187484338339e0 6.556635316326606e0 6.639107635922627e0
      6.722617329594143e0 6.807177445900668e0 6.892801197532435e0 6.979501963374818e0
      7.067293290598886e0 7.156188896778143e0 7.246202672031886e0 7.337348681195662e0
      7.429641166018815e0 7.523094547389879e0 7.617723427589842e0 7.713542592573731e0
      7.810567014281046e0 7.908811852975053e0 8.008292459611688e0 8.109024378238150e0
      8.211023348421636e0 8.314305307708784e0 8.418886394115830e0 8.524782948650317e0
      8.632011517864351e0 8.740588856439999e0 8.850531929807349e0 8.961857916795262e0
      9.074584212315713e0 9.188728430081742e0 9.304308405359569e0 9.421342197755511e0
      9.539848094037707e0 9.659844610993567e0 9.781350498323016e0 9.904384741568126e0
      1.002896656507975e1 1.015511543502124e1 1.028285106241020e1 1.041219340619830e1
      1.054316267638987e1 1.067577933719987e1 1.081006411025134e1 1.094603797781328e1
      1.108372218607916e1 1.122313824848660e1 1.136430794907904e1 1.150725334590937e1
      1.165199677448669e1 1.179856085126621e1 1.194696847718308e1 1.209724284123082e1
      1.224940742408452e1 1.240348600176985e1 1.255950264937806e1 1.271748174482772e1
      1.287744797267395e1 1.303942632796526e1 1.320344212014924e1 1.336952097702712e1
      1.353768884875814e1 1.370797201191445e1 1.388039707358668e1 1.405499097554154e1
      1.423178099843146e1 1.441079476605714e1 1.459206024968403e1 1.477560577241269e1
      1.496146001360449e1 1.514965201336277e1 1.534021117707031e1 1.553316727998421e1
      1.572855047188805e1 1.592639128180310e1 1.612672062275846e1 1.632956979662116e1
      1.653497049898738e1 1.674295482413471e1 1.695355527003710e1 1.716680474344275e1
      1.738273656501566e1 1.760138447454235e1 1.782278263620344e1 1.804696564391217e1
      1.827396852671963e1 1.850382675428804e1 1.873657624243317e1 1.897225335873600e1
      1.921089492822548e1 1.945253823913241e1 1.969722104871566e1 1.994498158916211e1
      2.019585857356022e1 2.044989120194924e1 2.070711916744422e1 2.096758266243805e1
      2.123132238488179e1 2.149837954464360e1 2.176879586994805e1 2.204261361389617e1
      2.231987556106748e1 2.260062503420538e1 2.288490590098616e1 2.317276258087368e1
      2.346424005205985e1 2.375938385849248e1 2.405824011699188e1 2.436085552445639e1
      2.466727736515914e1 2.497755351813622e1 2.529173246466767e1 2.560986329585321e1
      2.593199572028236e1 2.625818007180185e1 2.658846731738029e1 2.692290906507168e1
      2.726155757207962e1 2.760446575292221e1 2.795168718770042e1 2.830327613046991e1
      2.865928751771820e1 2.901977697694896e1 2.938480083537351e1 2.975441612871243e1
      3.012868061010734e1 3.050765275914481e1 3.089139179099424e1 3.127995766565999e1
      3.167341109735057e1 3.207181356396521e1 3.247522731669979e1 3.288371538977402e1
      3.329734161028028e1 3.371617060815712e1 3.414026782628762e1 3.456969953072483e1
      3.500453282104638e1 3.544483564083843e1 3.589067678831244e1 3.634212592705484e1
      3.679925359691191e1 3.726213122501222e1 3.773083113692677e1 3.820542656797043e1
      3.868599167464495e1 3.917260154622583e1 3.966533221649566e1 4.016426067562398e1
      4.066946488219769e1 4.118102377540199e1 4.169901728735457e1 4.222352635559568e1
      4.275463293573421e1 4.329242001425392e1 4.383697162148005e1 4.438837284470897e1
      4.494670984150380e1 4.551206985315608e1 4.608454121831794e1 4.666421338680497e1
      4.725117693357269e1 4.784552357286961e1 4.844734617256720e1 4.905673876867114e1
      4.967379658001448e1 5.029861602313549e1 5.093129472734353e1 5.157193154997316e1
      5.222062659183136e1 5.287748121283833e1 5.354259804786479e1 5.421608102276958e1
      5.489803537063755e1 5.558856764822312e1 5.628778575259962e1 5.699579893801826e1
      5.771271783297992e1 5.843865445752033e1 5.917372224071409e1 5.991803603839793e1
      6.067171215111686e1 6.143486834229707e1 6.220762385664585e1 6.299009943878464e1
      6.378241735211520e1 6.458470139792325e1 6.539707693472344e1 6.621967089784596e1
      6.705261181927122e1 6.789602984771297e1 6.875005676895383e1 6.961482602643807e1
      7.049047274212126e1 7.137713373758439e1 7.227494755541205e1 7.318405448083964e1
      7.410459656367410e1 7.503671764048848e1 7.598056335709758e1 7.693628119131502e1
      7.790402047599653e1 7.888393242237453e1 7.987617014368398e1 8.088088867908771e1
      8.189824501790115e1 8.292839812412177e1 8.397150896126856e1 8.502774051753176e1
      8.609725783124111e1 8.718022801665297e1 8.827682029006183e1 8.938720599624176e1
      9.051155863521812e1 9.165005388937844e1 9.280286965092262e1 9.397018604965849e1
      9.515218548114861e1 9.634905263520864e1 9.756097452476657e1 9.878814051508350e1
      1.000307423533418e2
      </PP_R>
    <PP_RAB>
      5.427868842586406e-7 5.496143027791799e-7 5.565275996527275e-7 5.635278550959846e-7
      5.706161629131071e-7 5.777936306666126e-7 5.850613798504398e-7 5.924205460651855e-7
      5.998722791955419e-7 6.074177435899729e-7 6.150581182426412e-7 6.227945969776300e-7
      6.306283886354822e-7 6.385607172620816e-7 6.465928222999153e-7 6.547259587817371e-7
      6.629613975266688e-7 6.713004253387691e-7 6.797443452080999e-7 6.882944765143202e-7
      6.969521552328420e-7 7.057187341435791e-7 7.145955830423221e-7 7.235840889547706e-7
      7.326856563532626e-7 7.419017073762200e-7 7.512336820503657e-7 7.606830385157290e-7
      7.702512532534810e-7 7.799398213166429e-7 7.897502565636855e-7 7.996840918950754e-7
      8.097428794927939e-7 8.199281910628674e-7 8.302416180809516e-7 8.406847720410010e-7
      8.512592847070678e-7 8.619668083682711e-7 8.728090160969661e-7 8.837876020101710e-7
      8.949042815342693e-7 9.061607916730546e-7 9.175588912791371e-7 9.291003613287693e-7
      9.407870052001289e-7 9.526206489550979e-7 9.646031416245872e-7 9.767363554974560e-7
      9.890221864130561e-7 1.001462554057465e-6 1.014059402263437e-6 1.026814699314132e-6
      1.039730438250667e-6 1.052808637183524e-6 1.066051339607899e-6 1.079460614722985e-6
      1.093038557755302e-6 1.106787290286072e-6 1.120708960582725e-6 1.134805743934569e-6