<?xml version="1.0" encoding="UTF-8"?>
<UPF version="2.0.1">
  <PP_INFO><![CDATA[
Generated using "atomic" code by A. Dal Corso  v.6.6
Author: ADC
Generation date: 14Nov2022
Pseudopotential type: USPP
Element:  Y
Functional: PBE
    Suggested minimum cutoff for wavefunctions:  38. Ry
    Suggested minimum cutoff for charge density: 257. Ry
    The Pseudo was generated with a Scalar-Relativistic Calculation
    Local Potential by smoothing AE potential with Bessel fncs, cutoff radius:   1.6000
    Valence configuration:
    nl pn  l   occ       Rcut    Rcut US       E pseu
    4S  1  0  2.00      1.200      1.400    -3.527473
    5S  2  0  2.00      1.200      1.400    -0.301505
    4P  2  1  6.00      1.300      1.600    -2.051797
    5P  3  1  0.00      1.300      1.600    -0.105878
    4D  3  2  1.00      1.200      1.800    -0.184882
    Generation configuration:
    4S  1  0  2.00      1.200      1.400    -3.527511
    5S  2  0  2.00      1.200      1.400    -0.301516
    4P  2  1  6.00      1.300      1.600    -2.051824
    5P  3  1  0.00      1.300      1.600    -0.105882
    4D  3  2  1.00      1.200      1.800    -0.184899
    4D  3  2  0.00      1.200      1.800     0.500000
    Pseudization used: troullier-martins
]]>
    <PP_INPUTFILE><![CDATA[
 &input
   title='Y',
   zed=39.,
   rel=1,
   config='[Kr] 5s2 5p0 4d1',
   iswitch=3,
   dft='PBE'
 /
 &inputp
   lpaw=.false.,
   pseudotype=3,
   file_pseudopw='Y.pbe-spn-rrkjus_psl.1.0.0.UPF',
   author='ADC',
   lloc=-1,
   rcloc=1.6,
   which_augfun='PSQ',
   rmatch_augfun_nc=.true.,
   nlcc=.true.,
   new_core_ps=.true.,
   rcore=1.2,
   tm=.true.
 /
6
4S  1  0  2.00  0.00  1.20  1.40  0.0
5S  2  0  2.00  0.00  1.20  1.40  0.0
4P  2  1  6.00  0.00  1.30  1.60  0.0
5P  3  1  0.00  0.00  1.30  1.60  0.0
4D  3  2  1.00  0.00  1.20  1.80  0.0
4D  3  2  0.00  0.50  1.20  1.80  0.0
]]></PP_INPUTFILE>
  </PP_INFO>
  <!--
 END OF HUMAN READABLE SECTION 
-->
  <PP_HEADER generated="Generated using &quot;atomic&quot; code by A. Dal Corso  v.6.6" author="ADC" date="14Nov2022" comment="" element=" Y" pseudo_type="USPP" relativistic="scalar" is_ultrasoft="true" is_paw="false" is_coulomb="false" has_so="false" has_wfc="false" has_gipaw="false" paw_as_gipaw="false" core_correction="true" functional="PBE" z_valence="1.100000000000e1" total_psenergy="-8.316366800892e1" wfc_cutoff="3.801368621319e1" rho_cutoff="2.572056671792e2" l_max="2" l_max_rho="4" l_local="-1" mesh_size="1223" number_of_wfc="5" number_of_proj="6"/>
  <PP_MESH dx="1.250000000000e-2" mesh="1223" xmin="-7.000000000000e0" rmax="1.000000000000e2" zmesh="3.900000000000e1">
    <PP_R>
      2.338158886037221e-5 2.367569304279544e-5 2.397349660042518e-5 2.427504606567318e-5
      2.458038855625691e-5 2.488957178256177e-5 2.520264405509586e-5 2.551965429203875e-5
      2.584065202688488e-5 2.616568741618346e-5 2.649481124737530e-5 2.682807494672868e-5
      2.716553058737462e-5 2.750723089744351e-5 2.785322926830405e-5 2.820357976290559e-5
      2.855833712422573e-5 2.891755678382391e-5 2.928129487050276e-5 2.964960821907841e-5
      3.002255437926089e-5 3.040019162464648e-5 3.078257896182310e-5 3.116977613959012e-5
      3.156184365829439e-5 3.195884277928332e-5 3.236083553447729e-5 3.276788473606217e-5
      3.318005398630379e-5 3.359740768748616e-5 3.402001105197414e-5 3.444793011240326e-5
      3.488123173199728e-5 3.531998361501582e-5 3.576425431733331e-5 3.621411325715080e-5
      3.666963072584294e-5 3.713087789894090e-5 3.759792684725393e-5 3.807085054813043e-5
      3.854972289686083e-5 3.903461871822389e-5 3.952561377817820e-5 4.002278479570083e-5
      4.052620945477480e-5 4.103596641652729e-5 4.155213533152069e-5 4.207479685219811e-5
      4.260403264548549e-5 4.313992540555234e-5 4.368255886673267e-5 4.423201781660877e-5
      4.478838810925947e-5 4.535175667867489e-5 4.592221155234027e-5 4.649984186499013e-5
      4.708473787253608e-5 4.767699096616925e-5 4.827669368664045e-5 4.888393973871991e-5
      4.949882400583871e-5 5.012144256491455e-5 5.075189270136402e-5 5.139027292430356e-5
      5.203668298194190e-5 5.269122387716561e-5 5.335399788332127e-5 5.402510856019573e-5
      5.470466077019765e-5 5.539276069474242e-5 5.608951585084321e-5 5.679503510791069e-5
      5.750942870476418e-5 5.823280826685659e-5 5.896528682371631e-5 5.970697882660803e-5
      6.045800016641623e-5 6.121846819175318e-5 6.198850172729495e-5 6.276822109234828e-5
      6.355774811965020e-5 6.435720617440509e-5 6.516672017356047e-5 6.598641660532563e-5
      6.681642354893586e-5 6.765687069466466e-5 6.850788936408848e-5 6.936961253060580e-5
      7.024217484021457e-5 7.112571263255098e-5 7.202036396219263e-5 7.292626862022994e-5
      7.384356815610880e-5 7.477240589974788e-5 7.571292698393453e-5 7.666527836700155e-5
      7.762960885579013e-5 7.860606912890110e-5 7.959481176023868e-5 8.059599124285077e-5
      8.160976401306838e-5 8.263628847494942e-5 8.367572502502945e-5 8.472823607738416e-5
      8.579398608900696e-5 8.687314158550542e-5 8.796587118712139e-5 8.907234563507831e-5
      9.019273781825971e-5 9.132722280022385e-5 9.247597784655721e-5 9.363918245257292e-5
      9.481701837135724e-5 9.600966964216873e-5 9.721732261919508e-5 9.844016600067086e-5
      9.967839085836234e-5 1.009321906674226e-4 1.022017613366228e-4 1.034873012389630e-4
      1.047890112426684e-4 1.061070947425753e-4 1.074417576919123e-4 1.087932086344805e-4
      1.101616587372395e-4 1.115473218233018e-4 1.129504144053437e-4 1.143711557194359e-4
      1.158097677592991e-4 1.172664753109916e-4 1.187415059880319e-4 1.202350902669644e-4
      1.217474615233712e-4 1.232788560683381e-4 1.248295131853785e-4 1.263996751678218e-4
      1.279895873566722e-4 1.295994981789439e-4 1.312296591864782e-4 1.328803250952493e-4
      1.345517538251637e-4 1.362442065403610e-4 1.379579476900211e-4 1.396932450496853e-4
      1.414503697630967e-4 1.432295963845667e-4 1.450312029218745e-4 1.468554708797073e-4
      1.487026853036447e-4 1.505731348246988e-4 1.524671117044127e-4 1.543849118805271e-4
      1.563268350132215e-4 1.582931845319359e-4 1.602842676827836e-4 1.623003955765576e-4
      1.643418832373432e-4 1.664090496517407e-4 1.685022178187080e-4 1.706217148000301e-4
      1.727678717714223e-4 1.749410240742776e-4 1.771415112680649e-4 1.793696771833849e-4
      1.816258699756955e-4 1.839104421797102e-4 1.862237507644844e-4 1.885661571891907e-4
      1.909380274595984e-4 1.933397321852635e-4 1.957716466374349e-4 1.982341508076941e-4
      2.007276294673276e-4 2.032524722274486e-4 2.058090735998759e-4 2.083978330587746e-4
      2.110191551030777e-4 2.136734493196874e-4 2.163611304474752e-4 2.190826184420858e-4
      2.218383385415547e-4 2.246287213327546e-4 2.274542028186733e-4 2.303152244865414e-4
      2.332122333768160e-4 2.361456821530292e-4 2.391160291725212e-4 2.421237385580567e-4
      2.451692802703463e-4 2.482531301814793e-4 2.513757701492776e-4 2.545376880925900e-4
      2.577393780675279e-4 2.609813403446632e-4 2.642640814871987e-4 2.675881144301155e-4
      2.709539585603244e-4 2.743621397978186e-4 2.778131906778500e-4 2.813076504341407e-4
      2.848460650831361e-4 2.884289875093247e-4 2.920569775516251e-4 2.957306020908621e-4
      2.994504351383449e-4 3.032170579255543e-4 3.070310589949647e-4 3.108930342920025e-4
      3.148035872581651e-4 3.187633289253101e-4 3.227728780111281e-4 3.268328610158223e-4
      3.309439123199967e-4 3.351066742837816e-4 3.393217973472035e-4 3.435899401318161e-4
      3.479117695436137e-4 3.522879608772345e-4 3.567191979214774e-4 3.612061730661471e-4
      3.657495874102374e-4 3.703501508714840e-4 3.750085822972877e-4 3.797256095770360e-4
      3.845019697558389e-4 3.893384091496910e-4 3.942356834620880e-4 3.991945579021050e-4
      4.042158073039611e-4 4.093002162480929e-4 4.144485791837404e-4 4.196617005530879e-4
      4.249403949169553e-4 4.302854870820758e-4 4.356978122299765e-4 4.411782160474714e-4
      4.467275548588081e-4 4.523466957594657e-4 4.580365167516419e-4 4.637979068814440e-4
      4.696317663777995e-4 4.755390067931253e-4 4.815205511457540e-4 4.875773340641604e-4
      4.937103019329982e-4 4.999204130409742e-4 5.062086377305841e-4 5.125759585497290e-4
      5.190233704052408e-4 5.255518807183400e-4 5.321625095820447e-4 5.388562899205649e-4
      5.456342676506968e-4 5.524975018452506e-4 5.594470648985327e-4 5.664840426939088e-4
      5.736095347734770e-4 5.808246545098711e-4 5.881305292802290e-4 5.955283006423480e-4
      6.030191245130540e-4 6.106041713488174e-4 6.182846263286378e-4 6.260616895392318e-4
      6.339365761625486e-4 6.419105166656448e-4 6.499847569929473e-4 6.581605587609341e-4
      6.664391994552653e-4 6.748219726303928e-4 6.833101881116792e-4 6.919051722000637e-4
      7.006082678792966e-4 7.094208350257841e-4 7.183442506210724e-4 7.273799089670026e-4
      7.365292219035751e-4 7.457936190295506e-4 7.551745479258278e-4 7.646734743816336e-4
      7.742918826235513e-4 7.840312755474383e-4 7.938931749532536e-4 8.038791217828432e-4
      8.139906763607168e-4 8.242294186378480e-4 8.345969484385495e-4 8.450948857104454e-4
      8.557248707775917e-4 8.664885645967836e-4 8.773876490170778e-4 8.884238270425904e-4
      8.995988230985908e-4 9.109143833009480e-4 9.223722757289659e-4 9.339742907016470e-4
      9.457222410574362e-4 9.576179624374776e-4 9.696633135724381e-4 9.818601765729401e-4
      9.942104572236412e-4 1.006716085281021e-3 1.019379014774906e-3 1.032201224313791e-3
      1.045184717394006e-3 1.058331522712758e-3 1.071643694485126e-3 1.085123312765034e-3
      1.098772483770261e-3 1.112593340211548e-3 1.126588041625831e-3 1.140758774713680e-3
      1.155107753680970e-3 1.169637220584857e-3 1.184349445684106e-3 1.199246727793820e-3
      1.214331394644639e-3 1.229605803246448e-3 1.245072340256666e-3 1.260733422353169e-3
      1.276591496611896e-3 1.292649040889215e-3 1.308908564209088e-3 1.325372607155113e-3
      1.342043742267497e-3 1.358924574445020e-3 1.376017741352055e-3 1.393325913830705e-3
      1.410851796318135e-3 1.428598127269138e-3 1.446567679584034e-3 1.464763261041930e-3
      1.483187714739449e-3 1.501843919534963e-3 1.520734790498429e-3 1.539863279366871e-3
      1.559232375005589e-3 1.578845103875186e-3 1.598704530504448e-3 1.618813757969189e-3
      1.639175928377117e-3 1.659794223358784e-3 1.680671864564727e-3 1.701812114168863e-3
      1.723218275378199e-3 1.744893692948979e-3 1.766841753709297e-3 1.789065887088299e-3
      1.811569565652041e-3 1.834356305646083e-3 1.857429667544909e-3 1.880793256608260e-3
      1.904450723444459e-3 1.928405764580832e-3 1.952662123041291e-3 1.977223588931198e-3
      2.002094000029569e-3 2.027277242388736e-3 2.052777250941554e-3 2.078598010116237e-3
      2.104743554458944e-3 2.131217969264168e-3 2.158025391213087e-3 2.185170009019920e-3
      2.212656064086423e-3 2.240487851164625e-3 2.268669719027880e-3 2.297206071150377e-3
      2.326101366395194e-3 2.355360119710997e-3 2.384986902837526e-3 2.414986345019915e-3
      2.445363133732042e-3 2.476122015408945e-3 2.507267796188462e-3 2.538805342662212e-3
      2.570739582635993e-3 2.603075505899772e-3 2.635818165007344e-3 2.668972676065811e-3
      2.702544219534983e-3 2.736538041036826e-3 2.770959452175110e-3 2.805813831365359e-3
      2.841106624675230e-3 2.876843346675480e-3 2.913029581301635e-3 2.949670982726472e-3
      2.986773276243513e-3 3.024342259161605e-3 3.062383801710760e-3 3.100903847959402e-3
      3.139908416743127e-3 3.179403602605161e-3 3.219395576748649e-3 3.259890588000913e-3
      3.300894963789852e-3 3.342415111132607e-3 3.384457517636674e-3 3.427028752513603e-3
      3.470135467605454e-3 3.513784398424166e-3 3.557982365203982e-3 3.602736273967133e-3
      3.648053117602915e-3 3.693939976960340e-3 3.740404021954549e-3 3.787452512687098e-3
      3.835092800580387e-3 3.883332329526326e-3 3.932178637049448e-3 3.981639355484692e-3
      4.031722213169941e-3 4.082435035653599e-3 4.133785746917356e-3 4.185782370614318e-3
      4.238433031322733e-3 4.291745955815450e-3 4.345729474345389e-3 4.400392021947150e-3
      4.455742139755004e-3 4.511788476337475e-3 4.568539789048680e-3 4.626004945396688e-3
      4.684192924429097e-3 4.743112818136007e-3 4.802773832870693e-3 4.863185290788086e-3
      4.924356631301390e-3 4.986297412557017e-3 5.049017312928052e-3 5.112526132526543e-3
      5.176833794734756e-3 5.241950347755746e-3 5.307885966183406e-3 5.374650952592251e-3
      5.442255739147259e-3 5.510710889233863e-3 5.580027099108539e-3 5.650215199570104e-3
      5.721286157652047e-3 5.793251078336176e-3 5.866121206287756e-3 5.939907927612536e-3
      6.014622771635842e-3 6.090277412704054e-3 6.166883672008774e-3 6.244453519433867e-3
      6.322999075425811e-3 6.402532612887533e-3 6.483066559096063e-3 6.564613497644362e-3
      6.647186170407478e-3 6.730797479533523e-3 6.815460489459662e-3 6.901188428953432e-3
      6.987994693179811e-3 7.075892845794185e-3 7.164896621061729e-3 7.255019926003412e-3
      7.346276842568978e-3 7.438681629837318e-3 7.532248726244434e-3 7.626992751839506e-3
      7.722928510569290e-3 7.820070992591264e-3 7.918435376615895e-3 8.018037032278304e-3
      8.118891522539830e-3 8.221014606119766e-3 8.324422239957684e-3 8.429130581706772e-3
      8.535155992258453e-3 8.642515038298832e-3 8.751224494897279e-3 8.861301348127551e-3
      8.972762797721934e-3 9.085626259758687e-3 9.199909369383379e-3 9.315629983564397e-3
      9.432806183883136e-3 9.551456279359307e-3 9.671598809311719e-3 9.793252546255106e-3
      9.916436498833372e-3 1.004116991478972e-2 1.016747228397418e-2 1.029536334138889e-2
      1.042486307027178e-2 1.055599170521894e-2 1.068876973534637e-2 1.082321790749142e-2
      1.095935722945453e-2 1.109720897328173e-2 1.123679467858845e-2 1.137813615592512e-2
      1.152125549018517e-2 1.166617504405574e-2 1.181291746151195e-2 1.196150567135509e-2
      1.211196289079525e-2 1.226431262907908e-2 1.241857869116314e-2 1.257478518143349e-2
      1.273295650747205e-2 1.289311738387028e-2 1.305529283609101e-2 1.321950820437857e-2
      1.338578914771837e-2 1.355416164784609e-2 1.372465201330744e-2 1.389728688356890e-2
      1.407209323318017e-2 1.424909837598902e-2 1.442832996940913e-2 1.460981601874161e-2
      1.479358488155094e-2 1.497966527209580e-2 1.516808626581578e-2 1.535887730387451e-2
      1.555206819775983e-2 1.574768913394200e-2 1.594577067859027e-2 1.614634378234898e-2
      1.634943978517369e-2 1.655509042122800e-2 1.676332782384224e-2 1.697418453053421e-2
      1.718769348809332e-2 1.740388805772858e-2 1.762280202028134e-2 1.784446958150365e-2
      1.806892537740291e-2 1.829620447965392e-2 1.852634240107879e-2 1.875937510119594e-2
      1.899533899183892e-2 1.923427094284569e-2 1.947620828781971e-2 1.972118882996336e-2
      1.996925084798474e-2 2.022043310207889e-2 2.047477483998403e-2 2.073231580311417e-2
      2.099309623276878e-2 2.125715687642052e-2 2.152453899408224e-2 2.179528436475381e-2
      2.206943529295021e-2 2.234703461531176e-2 2.262812570729732e-2 2.291275248996195e-2
      2.320095943681948e-2 2.349279158079175e-2 2.378829452124496e-2 2.408751443111476e-2
      2.439049806412088e-2 2.469729276207236e-2 2.500794646226495e-2 2.532250770497134e-2
      2.564102564102564e-2 2.596355003950345e-2 2.629013129549818e-2 2.662082043799552e-2
      2.695566913784679e-2 2.729472971584255e-2 2.763805515088800e-2 2.798569908828082e-2
      2.833771584809354e-2 2.869416043366106e-2 2.905508854017503e-2 2.942055656338647e-2
      2.979062160841752e-2 3.016534149868439e-2 3.054477478493228e-2 3.092898075438412e-2
      3.131801944000436e-2 3.171195162987911e-2 3.211083887671449e-2 3.251474350745437e-2
      3.292372863301901e-2 3.333785815816644e-2 3.375719679147748e-2 3.418181005546676e-2
      3.461176429682062e-2 3.504712669676401e-2 3.548796528155773e-2 3.593434893312753e-2
      3.638634739982713e-2 3.684403130733655e-2 3.730747216969746e-2 3.777674240048758e-2
      3.825191532413514e-2 3.873306518737624e-2 3.922026717085589e-2 3.971359740087521e-2
      4.021313296128639e-2 4.071895190553702e-2 4.123113326886624e-2 4.174975708065412e-2
      4.227490437692637e-2 4.280665721301649e-2 4.334509867638698e-2 4.389031289961193e-2
      4.444238507352299e-2 4.500140146052047e-2 4.556744940805228e-2 4.614061736226177e-2
      4.672099488180795e-2 4.730867265185900e-2 4.790374249826211e-2 4.850629740189155e-2
      4.911643151317683e-2 4.973424016681424e-2 5.035981989666278e-2 5.099326845082800e-2
      5.163468480693531e-2 5.228416918759527e-2 5.294182307606379e-2 5.360774923209890e-2
      5.428205170801730e-2 5.496483586495281e-2 5.565620838931905e-2 5.635627730947956e-2
      5.706515201262742e-2 5.778294326187714e-2 5.850976321357190e-2 5.924572543480782e-2
      5.999094492117928e-2 6.074553811474722e-2 6.150962292223329e-2 6.228331873344329e-2
      6.306674643992181e-2 6.386002845384185e-2 6.466328872713206e-2 6.547665277084427e-2
      6.630024767476530e-2 6.713420212727440e-2 6.797864643545148e-2 6.883371254543775e-2
      6.969953406305242e-2 7.057624627466942e-2 7.146398616835516e-2 7.236289245527434e-2
      7.327310559136323e-2 7.419476779927593e-2 7.512802309060782e-2 7.607301728839664e-2
      7.702989804990851e-2 7.799881488970938e-2 7.897991920302644e-2 7.997336428940500e-2
      8.097930537666075e-2 8.199789964513526e-2 8.302930625225546e-2 8.407368635740188e-2
      8.513120314709106e-2 8.620202186047257e-2 8.728630981514918e-2 8.838423643331993e-2
      8.949597326825234e-2 9.062169403108907e-2 9.176157461798924e-2 9.291579313761387e-2
      9.408452993895505e-2 9.526796763951550e-2 9.646629115384396e-2 9.767968772242725e-2
      9.890834694094803e-2 1.001524607899091e-1 1.014122236646302e-1 1.026878324056238e-1
      1.039794863293507e-1 1.052873872593644e-1 1.066117395578464e-1 1.079527501575374e-1
      1.093106285940724e-1 1.106855870387191e-1 1.120778403315322e-1 1.134876060149215e-1
      1.149151043676427e-1 1.163605584392181e-1 1.178241940847869e-1 1.193062400003966e-1
      1.208069277587370e-1 1.223264918453231e-1 1.238651696951355e-1 1.254232017297181e-1
      1.270008313947465e-1 1.285983051980657e-1 1.302158727482072e-1 1.318537867933921e-1
      1.335123032610218e-1 1.351916812976690e-1 1.368921833095687e-1 1.386140750036197e-1
      1.403576254289027e-1 1.421231070187186e-1 1.439107956331578e-1 1.457209706022038e-1
      1.475539147693777e-1 1.494099145359354e-1 1.512892599056158e-1 1.531922445299570e-1
      1.551191657541782e-1 1.570703246636407e-1 1.590460261308941e-1 1.610465788633119e-1
      1.630722954513289e-1 1.651234924172837e-1 1.672004902648747e-1 1.693036135292419e-1
      1.714331908276736e-1 1.735895549109557e-1 1.757730427153636e-1 1.779839954153086e-1
      1.802227584766487e-1 1.824896817106666e-1 1.847851193287299e-1 1.871094299976368e-1
      1.894629768956577e-1 1.918461277692843e-1 1.942592549906884e-1 1.967027356159084e-1
      1.991769514437635e-1 2.016822890755101e-1 2.042191399752508e-1 2.067879005310993e-1
      2.093889721171191e-1 2.120227611560378e-1 2.146896791827504e-1 2.173901429086252e-1
      2.201245742866127e-1 2.228934005771795e-1 2.256970544150670e-1 2.285359738768907e-1
      2.314106025495931e-1 2.343213895997520e-1 2.372687898437664e-1 2.402532638189214e-1
      2.432752778553468e-1 2.463353041488849e-1 2.494338208348689e-1 2.525713120628354e-1
      2.557482680721725e-1 2.589651852687193e-1 2.622225663023336e-1 2.655209201454281e-1
      2.688607621725018e-1 2.722426142406669e-1 2.756670047711886e-1 2.791344688320550e-1
      2.826455482215796e-1 2.862007915530606e-1 2.898007543405023e-1 2.934459990854133e-1
      2.971370953647026e-1 3.008746199196721e-1 3.046591567461383e-1 3.084912971856805e-1
      3.123716400180378e-1 3.163007915546735e-1 3.202793657335080e-1 3.243079842148519e-1
      3.283872764785396e-1 3.325178799222855e-1 3.367004399612828e-1 3.409356101290459e-1
      3.452240521795310e-1 3.495664361905324e-1 3.539634406683870e-1 3.584157526539910e-1
      3.629240678301489e-1 3.674890906302807e-1 3.721115343484853e-1 3.767921212509985e-1
      3.815315826890474e-1 3.863306592131229e-1 3.911901006886969e-1 3.961106664133853e-1
      4.010931252355942e-1 4.061382556746521e-1 4.112468460424532e-1 4.164196945666374e-1
      4.216576095153092e-1 4.269614093233370e-1 4.323319227202321e-1 4.377699888596375e-1
      4.432764574504529e-1 4.488521888895971e-1 4.544980543964524e-1 4.602149361489912e-1
      4.660037274216171e-1 4.718653327247455e-1 4.778006679461287e-1 4.838106604939714e-1
      4.898962494418377e-1 4.960583856753799e-1 5.022980320409236e-1 5.086161634959060e-1
      5.150137672612223e-1 5.214918429754777e-1 5.280514028511804e-1 5.346934718329086e-1
      5.414190877574519e-1 5.482293015159831e-1 5.551251772182583e-1 5.621077923588839e-1
      5.691782379856837e-1 5.763376188701699e-1 5.835870536801727e-1 5.909276751546307e-1
      5.983606302805827e-1 6.058870804723910e-1 6.135082017532090e-1 6.212251849387430e-1
      6.290392358233172e-1 6.369515753682782e-1 6.449634398927794e-1 6.530760812669511e-1
      6.612907671075145e-1 6.696087809758460e-1 6.780314225785334e-1 6.865600079704656e-1
      6.951958697604592e-1 7.039403573194897e-1 7.127948369915305e-1 7.217606923070425e-1
      7.308393241991620e-1 7.400321512225906e-1 7.493406097752549e-1 7.587661543227431e-1
      7.683102576255648e-1 7.779744109692810e-1 7.877601243975112e-1 7.976689269478888e-1
      8.077023668909735e-1 8.178620119721668e-1 8.281494496566852e-1 8.385662873775942e-1
      8.491141527869823e-1 8.597946940102812e-1 8.706095799037834e-1 8.815605003154161e-1
      8.926491663487704e-1 9.038773106304754e-1 9.152466875809207e-1 9.267590736883829e-1
      9.384162677866163e-1 9.502200913359127e-1 9.621723887077181e-1 9.742750274728154e-1
      9.865298986931316e-1 9.989389172172313e-1 1.011504021979501e0 1.024227176303127e0
      1.037110368206857e0 1.050155610715636e0 1.063364942175149e0 1.076740426570308e0
      1.090284153847764e0 1.103998240242461e0 1.117884828608295e0 1.131946088752956e0
      1.146184217776945e0 1.160601440416891e0 1.175200009393167e0 1.189982205761871e0
      1.204950339271265e0 1.220106748722659e0 1.235453802335867e0 1.250993898119243e0
      1.266729464244364e0 1.282662959425457e0 1.298796873303556e0 1.315133726835531e0
      1.331676072687987e0 1.348426495636114e0 1.365387612967582e0 1.382562074891476e0
      1.399952564952416e0 1.417561800449859e0 1.435392532862671e0 1.453447548279074e0
      1.471729667831955e0 1.490241748139692e0 1.508986681752499e0 1.527967397604384e0
      1.547186861470822e0 1.566648076432138e0 1.586354083342766e0 1.606307961306382e0
      1.626512828157009e0 1.646971840946204e0 1.667688196436334e0 1.688665131600095e0
      1.709905924126288e0 1.731413892931952e0 1.753192398680980e0 1.775244844309196e0
      1.797574675556099e0 1.820185381503255e0 1.843080495119463e0 1.866263593812814e0
      1.889738299989637e0 1.913508281620536e0 1.937577252813505e0 1.961948974394254e0
      1.986627254493871e0 2.011615949143824e0 2.036918962878496e0 2.062540249345264e0
      2.088483811922260e0 2.114753704343926e0 2.141354031334392e0 2.168288949248872e0
      2.195562666723094e0 2.223179445330895e0 2.251143600250126e0 2.279459500936880e0
      2.308131571808251e0 2.337164292933652e0 2.366562200734818e0 2.396329888694660e0
      2.426472008074978e0 2.456993268643253e0 2.487898439408550e0 2.519192349366668e0
      2.550879888254717e0 2.582966007315106e0 2.615455720069223e0 2.648354103100791e0
      2.681666296849083e0 2.715397506412155e0 2.749553002360117e0 2.784138121558708e0
      2.819158268003169e0 2.854618913662625e0 2.890525599335111e0 2.926883935513309e0
      2.963699603261222e0 3.000978355101844e0 3.038726015915983e0 3.076948483852450e0
      3.115651731249614e0 3.154841805568629e0 3.194524830338345e0 3.234707006112107e0
      3.275394611436642e0 3.316594003833051e0 3.358311620790221e0 3.400553980770684e0
      3.443327684229116e0 3.486639414643721e0 3.530495939560480e0 3.574904111650645e0
      3.619870869781462e0 3.665403240100360e0 3.711508337132850e0 3.758193364894133e0
      3.805465618014784e0 3.853332482880538e0 3.901801438786400e0 3.950880059105357e0
      4.000576012471670e0 4.050897063979166e0 4.101851076394531e0 4.153446011385855e0
      4.205689930766717e0 4.258590997755798e0 4.312157478252447e0 4.366397742128235e0
      4.421320264534726e0 4.476933627227806e0 4.533246519908524e0 4.590267741580941e0
      4.648006201926958e0 4.706470922698461e0 4.765671039127034e0 4.825615801351295e0
      4.886314575862308e0 4.947776846967092e0 5.010012218270537e0 5.073030414176045e0
      5.136841281404918e0 5.201454790534997e0 5.266881037558548e0 5.333130245459760e0
      5.400212765812173e0 5.468139080396052e0 5.536919802836259e0 5.606565680260620e0
      5.677087594979158e0 5.748496566184546e0 5.820803751673798e0 5.894020449591765e0
      5.968158100196469e0 6.043228287646631e0 6.119242741811791e0 6.196213340105046e0
      6.274152109338984e0 6.353071227604880e0 6.432983026175502e0 6.513899991431981e0
      6.595834766814742e0 6.678800154799148e0 6.762809118895878e0 6.847874785676465e0
      6.934010446824436e0 7.021229561212065e0 7.109545757003436e0 7.198972833783834e0
      7.289524764715921e0 7.381215698723163e0 7.474059962700517e0 7.568072063753136e0
      7.663266691463091e0 7.759658720184611e0 7.857263211368323e0 7.956095415914524e0
      8.056170776556261e0 8.157504930272259e0 8.260113710730167e0 8.364013150760726e0
      8.469219484862792e0 8.575749151740130e0 8.683618796869938e0 8.792845275103701e0
      8.903445653300899e0 9.015437212995611e0 9.128837453096899e0 9.243664092623018e0
      9.359935073469972e0 9.477668563215108e0 9.596882957955696e0 9.717596885183475e0
      9.839829206695185e0 9.963599021539713e0 1.008892566900247e1 1.021582873162708e1
      1.034432803827526e1 1.047444366722514e1 1.060619594930843e1 1.073960547108729e1
      1.087469307807089e1 1.101147987797267e1 1.114998724400843e1 1.129023681823587e1
      1.143225051493635e1 1.157605052403886e1 1.172165931458741e1 1.186909963825179e1
      1.201839453288249e1 1.216956732611059e1 1.232264163899255e1 1.247764138970121e1
      1.263459079726299e1 1.279351438534210e1 1.295443698607255e1 1.311738374393806e1
      1.328238011970108e1 1.344945189438104e1 1.361862517328259e1 1.378992639007481e1
      1.396338231092127e1 1.413902003866253e1 1.431686701705092e1 1.449695103503860e1
      1.467930023111979e1 1.486394309772734e1 1.505090848568484e1 1.524022560871457e1
      1.543192404800211e1 1.562603375681867e1 1.582258506520112e1 1.602160868469131e1
      1.622313571313472e1 1.642719763953951e1 1.663382634899690e1 1.684305412766307e1
      1.705491366780415e1 1.726943807290434e1 1.748666086283835e1 1.770661597910909e1
      1.792933779015092e1 1.815486109669999e1 1.838322113723179e1 1.861445359346721e1
      1.884859459594805e1 1.908568072968223e1 1.932574903986055e1 1.956883703764492e1
      1.981498270602949e1 2.006422450577581e1 2.031660138142211e1 2.057215276736869e1
      2.083091859403959e1 2.109293929412160e1 2.135825580888228e1 2.162690959456676e1
      2.189894262887568e1 2.217439741752415e1 2.245331700088323e1 2.273574496070537e1
      2.302172542693381e1 2.331130308459826e1 2.360452318079695e1 2.390143153176637e1
      2.420207453004051e1 2.450649915169943e1 2.481475296370966e1 2.512688413135652e1
      2.544294142576990e1 2.576297423154518e1 2.608703255445926e1 2.641516702928446e1
      2.674742892770011e1 2.708387016630372e1 2.742454331472344e1 2.776950160383170e1
      2.811879893406304e1 2.847248988383603e1 2.883062971808104e1 2.919327439687592e1
      2.956048058418945e1 2.993230565673552e1 3.030880771293826e1 3.069004558200984e1
      3.107607883314304e1 3.146696778481864e1 3.186277351423067e1 3.226355786682966e1
      3.266938346598600e1 3.308031372277535e1 3.349641284588623e1 3.391774585165327e1
      3.434437857421587e1 3.477637767580483e1 3.521381065715878e1 3.565674586807090e1
      3.610525251806912e1 3.655940068723006e1 3.701926133712899e1 3.748490632192819e1
      3.795640839960376e1 3.843384124331467e1 3.891727945291418e1 3.940679856660596e1
      3.990247507274759e1 4.040438642180149e1 4.091261103843716e1 4.142722833378501e1
      4.194831871784428e1 4.247596361204782e1 4.301024546198368e1 4.355124775027800e1
      4.409905500963908e1 4.465375283606557e1 4.521542790222153e1 4.578416797097864e1
      4.636006190912982e1 4.694319970127467e1 4.753367246387945e1 4.813157245951480e1
      4.873699311127130e1 4.935002901735762e1 4.997077596588142e1 5.059933094981610e1
      5.123579218215695e1 5.188025911126619e1 5.253283243641278e1 5.319361412350650e1
      5.386270742103020e1 5.454021687617304e1 5.522624835116564e1 5.592090903982179e1
      5.662430748428746e1 5.733655359200051e1 5.805775865286454e1 5.878803535663740e1
      5.952749781053992e1 6.027626155708507e1 6.103444359213143e1 6.180216238316471e1
      6.257953788780771e1 6.336669157256476e1 6.416374643180065e1 6.497082700695856e1
      6.578805940602059e1 6.661557132321156e1 6.745349205895221e1 6.830195254006236e1
      6.916108534021821e1 7.003102470066789e1 7.091190655120617e1 7.180386853141444e1
      7.270705001216701e1 7.362159211740748e1 7.454763774620073e1 7.548533159506000e1
      7.643482018055714e1 7.739625186221547e1 7.836977686569101e1 7.935554730624652e1
      8.035371721251861e1 8.136444255058604e1 8.238788124833944e1 8.342419322015713e1
      8.447354039189348e1 8.553608672617868e1 8.661199824803935e1 8.770144307083992e1
      8.880459142255011e1 8.992161567234460e1 9.105269035753468e1 9.219799221084125e1
      9.335770018800920e1 9.453199549576906e1 9.572106162015219e1 9.692508435515927e1
      9.814425183179248e1 9.937875454745061e1 1.006287853956942e2
      </PP_R>
    <PP_RAB>
      2.922698607546526e-7 2.959461630349431e-7 2.996687075053149e-7 3.034380758209148e-7
      3.072548569532115e-7 3.111196472820221e-7 3.150330506886983e-7 3.189956786504844e-7